
             +---------------------------------------------------+
             |                                                   |
             |                   WANNIER90                       |
             |                                                   |
             +---------------------------------------------------+
             |                                                   |
             |        Welcome to the Maximally-Localized         |
             |        Generalized Wannier Functions code         |
             |            http://www.wannier.org                 |
             |                                                   |
             |                                                   |
             |  Wannier90 Developer Group:                       |
             |    Giovanni Pizzi    (EPFL)                       |
             |    Valerio Vitale    (Cambridge)                  |
             |    David Vanderbilt  (Rutgers University)         |
             |    Nicola Marzari    (EPFL)                       |
             |    Ivo Souza         (Universidad del Pais Vasco) |
             |    Arash A. Mostofi  (Imperial College London)    |
             |    Jonathan R. Yates (University of Oxford)       |
             |                                                   |
             |  For the full list of Wannier90 3.x authors,      |
             |  please check the code documentation and the      |
             |  README on the GitHub page of the code            |
             |                                                   |
             |                                                   |
             |  Please cite                                      |
             |                                                   |
             |  [ref] "Wannier90 as a community code:            |
             |        new features and applications",            |
             |        G. Pizzi et al., J. Phys. Cond. Matt. 32,  |
             |        165902 (2020).                             |
             |        http://doi.org/10.1088/1361-648X/ab51ff    |
             |                                                   |
             |  in any publications arising from the use of      |
             |  this code. For the method please cite            |
             |                                                   |
             |  [ref] "Maximally Localized Generalised Wannier   |
             |         Functions for Composite Energy Bands"     |
             |         N. Marzari and D. Vanderbilt              |
             |         Phys. Rev. B 56 12847 (1997)              |
             |                                                   |
             |  [ref] "Maximally Localized Wannier Functions     |
             |         for Entangled Energy Bands"               |
             |         I. Souza, N. Marzari and D. Vanderbilt    |
             |         Phys. Rev. B 65 035109 (2001)             |
             |                                                   |
             |                                                   |
             | Copyright (c) 1996-2020                           |
             |        The Wannier90 Developer Group and          |
             |        individual contributors                    |
             |                                                   |
             |      Release: 3.1.0        5th March    2020      |
             |                                                   |
             | This program is free software; you can            |
             | redistribute it and/or modify it under the terms  |
             | of the GNU General Public License as published by |
             | the Free Software Foundation; either version 2 of |
             | the License, or (at your option) any later version|
             |                                                   |
             | This program is distributed in the hope that it   |
             | will be useful, but WITHOUT ANY WARRANTY; without |
             | even the implied warranty of MERCHANTABILITY or   |
             | FITNESS FOR A PARTICULAR PURPOSE. See the GNU     |
             | General Public License for more details.          |
             |                                                   |
             | You should have received a copy of the GNU General|
             | Public License along with this program; if not,   |
             | write to the Free Software Foundation, Inc.,      |
             | 675 Mass Ave, Cambridge, MA 02139, USA.           |
             |                                                   |
             +---------------------------------------------------+
             |    Execution started on 15Dec2025 at 08:58:22     |
             +---------------------------------------------------+
 
 ******************************************************************************
 * -> Using CODATA 2006 constant values                                       *
 *    (http://physics.nist.gov/cuu/Constants/index.html)                      *
 * -> Using Bohr value from CODATA                                            *
 ******************************************************************************
 

 Running in serial (with serial executable)

                                    ------
                                    SYSTEM
                                    ------

                              Lattice Vectors (Ang)
                    a_1     3.493893   0.000000   0.000000
                    a_2     0.000000   6.328959   0.000000
                    a_3     0.000000   0.000000  20.000000

                   Unit Cell Volume:     442.25407  (Ang^3)

                        Reciprocal-Space Vectors (Ang^-1)
                    b_1     1.798334   0.000000   0.000000
                    b_2     0.000000   0.992768   0.000000
                    b_3     0.000000   0.000000   0.314159
  
 *----------------------------------------------------------------------------*
 |   Site       Fractional Coordinate          Cartesian Coordinate (Ang)     |
 +----------------------------------------------------------------------------+
 | W    1   0.50000   0.96154   0.50000   |    1.74695   6.08553  10.00000    |
 | W    2   0.00000   0.60201   0.50000   |    0.00000   3.81008  10.00000    |
 | Te   1   0.00000   0.20903   0.45532   |    0.00000   1.32294   9.10640    |
 | Te   2   0.50000   0.71070   0.43805   |    1.74695   4.49800   8.76100    |
 | Te   3   0.00000   0.87793   0.55660   |    0.00000   5.55636  11.13200    |
 | Te   4   0.50000   0.37625   0.53933   |    1.74695   2.38130  10.78660    |
 *----------------------------------------------------------------------------*
                                -----------
                                PROJECTIONS
                                -----------
  
 +----------------------------------------------------------------------------+
 |     Frac. Coord.   l mr  r        z-axis               x-axis          Z/a |
 +----------------------------------------------------------------------------+
 |  0.50  0.96  0.50  2  1  1  0.000  0.000  1.000  1.000  0.000  0.000   1.0 |
 |  0.50  0.96  0.50  2  1  1  0.000  0.000  1.000  1.000  0.000  0.000   1.0 |
 |  0.50  0.96  0.50  2  2  1  0.000  0.000  1.000  1.000  0.000  0.000   1.0 |
 |  0.50  0.96  0.50  2  2  1  0.000  0.000  1.000  1.000  0.000  0.000   1.0 |
 |  0.50  0.96  0.50  2  3  1  0.000  0.000  1.000  1.000  0.000  0.000   1.0 |
 |  0.50  0.96  0.50  2  3  1  0.000  0.000  1.000  1.000  0.000  0.000   1.0 |
 |  0.50  0.96  0.50  2  4  1  0.000  0.000  1.000  1.000  0.000  0.000   1.0 |
 |  0.50  0.96  0.50  2  4  1  0.000  0.000  1.000  1.000  0.000  0.000   1.0 |
 |  0.50  0.96  0.50  2  5  1  0.000  0.000  1.000  1.000  0.000  0.000   1.0 |
 |  0.50  0.96  0.50  2  5  1  0.000  0.000  1.000  1.000  0.000  0.000   1.0 |
 |  0.00  0.60  0.50  2  1  1  0.000  0.000  1.000  1.000  0.000  0.000   1.0 |
 |  0.00  0.60  0.50  2  1  1  0.000  0.000  1.000  1.000  0.000  0.000   1.0 |
 |  0.00  0.60  0.50  2  2  1  0.000  0.000  1.000  1.000  0.000  0.000   1.0 |
 |  0.00  0.60  0.50  2  2  1  0.000  0.000  1.000  1.000  0.000  0.000   1.0 |
 |  0.00  0.60  0.50  2  3  1  0.000  0.000  1.000  1.000  0.000  0.000   1.0 |
 |  0.00  0.60  0.50  2  3  1  0.000  0.000  1.000  1.000  0.000  0.000   1.0 |
 |  0.00  0.60  0.50  2  4  1  0.000  0.000  1.000  1.000  0.000  0.000   1.0 |
 |  0.00  0.60  0.50  2  4  1  0.000  0.000  1.000  1.000  0.000  0.000   1.0 |
 |  0.00  0.60  0.50  2  5  1  0.000  0.000  1.000  1.000  0.000  0.000   1.0 |
 |  0.00  0.60  0.50  2  5  1  0.000  0.000  1.000  1.000  0.000  0.000   1.0 |
 |  0.00  0.21  0.46  1  1  1  0.000  0.000  1.000  1.000  0.000  0.000   1.0 |
 |  0.00  0.21  0.46  1  1  1  0.000  0.000  1.000  1.000  0.000  0.000   1.0 |
 |  0.00  0.21  0.46  1  2  1  0.000  0.000  1.000  1.000  0.000  0.000   1.0 |
 |  0.00  0.21  0.46  1  2  1  0.000  0.000  1.000  1.000  0.000  0.000   1.0 |
 |  0.00  0.21  0.46  1  3  1  0.000  0.000  1.000  1.000  0.000  0.000   1.0 |
 |  0.00  0.21  0.46  1  3  1  0.000  0.000  1.000  1.000  0.000  0.000   1.0 |
 |  0.50  0.71  0.44  1  1  1  0.000  0.000  1.000  1.000  0.000  0.000   1.0 |
 |  0.50  0.71  0.44  1  1  1  0.000  0.000  1.000  1.000  0.000  0.000   1.0 |
 |  0.50  0.71  0.44  1  2  1  0.000  0.000  1.000  1.000  0.000  0.000   1.0 |
 |  0.50  0.71  0.44  1  2  1  0.000  0.000  1.000  1.000  0.000  0.000   1.0 |
 |  0.50  0.71  0.44  1  3  1  0.000  0.000  1.000  1.000  0.000  0.000   1.0 |
 |  0.50  0.71  0.44  1  3  1  0.000  0.000  1.000  1.000  0.000  0.000   1.0 |
 |  0.00  0.88  0.56  1  1  1  0.000  0.000  1.000  1.000  0.000  0.000   1.0 |
 |  0.00  0.88  0.56  1  1  1  0.000  0.000  1.000  1.000  0.000  0.000   1.0 |
 |  0.00  0.88  0.56  1  2  1  0.000  0.000  1.000  1.000  0.000  0.000   1.0 |
 |  0.00  0.88  0.56  1  2  1  0.000  0.000  1.000  1.000  0.000  0.000   1.0 |
 |  0.00  0.88  0.56  1  3  1  0.000  0.000  1.000  1.000  0.000  0.000   1.0 |
 |  0.00  0.88  0.56  1  3  1  0.000  0.000  1.000  1.000  0.000  0.000   1.0 |
 |  0.50  0.38  0.54  1  1  1  0.000  0.000  1.000  1.000  0.000  0.000   1.0 |
 |  0.50  0.38  0.54  1  1  1  0.000  0.000  1.000  1.000  0.000  0.000   1.0 |
 |  0.50  0.38  0.54  1  2  1  0.000  0.000  1.000  1.000  0.000  0.000   1.0 |
 |  0.50  0.38  0.54  1  2  1  0.000  0.000  1.000  1.000  0.000  0.000   1.0 |
 |  0.50  0.38  0.54  1  3  1  0.000  0.000  1.000  1.000  0.000  0.000   1.0 |
 |  0.50  0.38  0.54  1  3  1  0.000  0.000  1.000  1.000  0.000  0.000   1.0 |
 +----------------------------------------------------------------------------+
  
                                ------------
                                K-POINT GRID
                                ------------
  
             Grid size = 12 x  6 x  1      Total points =   72
  
 *----------------------------------------------------------------------------*
 | k-point      Fractional Coordinate        Cartesian Coordinate (Ang^-1)    |
 +----------------------------------------------------------------------------+
 |     1    0.00000   0.00000   0.00000   |    0.00000   0.00000   0.00000    |
 |     2    0.00000   0.16667   0.00000   |    0.00000   0.16546   0.00000    |
 |     3    0.00000   0.33333   0.00000   |    0.00000   0.33092   0.00000    |
 |     4    0.00000   0.50000   0.00000   |    0.00000   0.49638   0.00000    |
 |     5    0.00000   0.66667   0.00000   |    0.00000   0.66185   0.00000    |
 |     6    0.00000   0.83333   0.00000   |    0.00000   0.82731   0.00000    |
 |     7    0.08333   0.00000   0.00000   |    0.14986   0.00000   0.00000    |
 |     8    0.08333   0.16667   0.00000   |    0.14986   0.16546   0.00000    |
 |     9    0.08333   0.33333   0.00000   |    0.14986   0.33092   0.00000    |
 |    10    0.08333   0.50000   0.00000   |    0.14986   0.49638   0.00000    |
 |    11    0.08333   0.66667   0.00000   |    0.14986   0.66185   0.00000    |
 |    12    0.08333   0.83333   0.00000   |    0.14986   0.82731   0.00000    |
 |    13    0.16667   0.00000   0.00000   |    0.29972   0.00000   0.00000    |
 |    14    0.16667   0.16667   0.00000   |    0.29972   0.16546   0.00000    |
 |    15    0.16667   0.33333   0.00000   |    0.29972   0.33092   0.00000    |
 |    16    0.16667   0.50000   0.00000   |    0.29972   0.49638   0.00000    |
 |    17    0.16667   0.66667   0.00000   |    0.29972   0.66185   0.00000    |
 |    18    0.16667   0.83333   0.00000   |    0.29972   0.82731   0.00000    |
 |    19    0.25000   0.00000   0.00000   |    0.44958   0.00000   0.00000    |
 |    20    0.25000   0.16667   0.00000   |    0.44958   0.16546   0.00000    |
 |    21    0.25000   0.33333   0.00000   |    0.44958   0.33092   0.00000    |
 |    22    0.25000   0.50000   0.00000   |    0.44958   0.49638   0.00000    |
 |    23    0.25000   0.66667   0.00000   |    0.44958   0.66185   0.00000    |
 |    24    0.25000   0.83333   0.00000   |    0.44958   0.82731   0.00000    |
 |    25    0.33333   0.00000   0.00000   |    0.59944   0.00000   0.00000    |
 |    26    0.33333   0.16667   0.00000   |    0.59944   0.16546   0.00000    |
 |    27    0.33333   0.33333   0.00000   |    0.59944   0.33092   0.00000    |
 |    28    0.33333   0.50000   0.00000   |    0.59944   0.49638   0.00000    |
 |    29    0.33333   0.66667   0.00000   |    0.59944   0.66185   0.00000    |
 |    30    0.33333   0.83333   0.00000   |    0.59944   0.82731   0.00000    |
 |    31    0.41667   0.00000   0.00000   |    0.74931   0.00000   0.00000    |
 |    32    0.41667   0.16667   0.00000   |    0.74931   0.16546   0.00000    |
 |    33    0.41667   0.33333   0.00000   |    0.74931   0.33092   0.00000    |
 |    34    0.41667   0.50000   0.00000   |    0.74931   0.49638   0.00000    |
 |    35    0.41667   0.66667   0.00000   |    0.74931   0.66185   0.00000    |
 |    36    0.41667   0.83333   0.00000   |    0.74931   0.82731   0.00000    |
 |    37    0.50000   0.00000   0.00000   |    0.89917   0.00000   0.00000    |
 |    38    0.50000   0.16667   0.00000   |    0.89917   0.16546   0.00000    |
 |    39    0.50000   0.33333   0.00000   |    0.89917   0.33092   0.00000    |
 |    40    0.50000   0.50000   0.00000   |    0.89917   0.49638   0.00000    |
 |    41    0.50000   0.66667   0.00000   |    0.89917   0.66185   0.00000    |
 |    42    0.50000   0.83333   0.00000   |    0.89917   0.82731   0.00000    |
 |    43    0.58333   0.00000   0.00000   |    1.04903   0.00000   0.00000    |
 |    44    0.58333   0.16667   0.00000   |    1.04903   0.16546   0.00000    |
 |    45    0.58333   0.33333   0.00000   |    1.04903   0.33092   0.00000    |
 |    46    0.58333   0.50000   0.00000   |    1.04903   0.49638   0.00000    |
 |    47    0.58333   0.66667   0.00000   |    1.04903   0.66185   0.00000    |
 |    48    0.58333   0.83333   0.00000   |    1.04903   0.82731   0.00000    |
 |    49    0.66667   0.00000   0.00000   |    1.19889   0.00000   0.00000    |
 |    50    0.66667   0.16667   0.00000   |    1.19889   0.16546   0.00000    |
 |    51    0.66667   0.33333   0.00000   |    1.19889   0.33092   0.00000    |
 |    52    0.66667   0.50000   0.00000   |    1.19889   0.49638   0.00000    |
 |    53    0.66667   0.66667   0.00000   |    1.19889   0.66185   0.00000    |
 |    54    0.66667   0.83333   0.00000   |    1.19889   0.82731   0.00000    |
 |    55    0.75000   0.00000   0.00000   |    1.34875   0.00000   0.00000    |
 |    56    0.75000   0.16667   0.00000   |    1.34875   0.16546   0.00000    |
 |    57    0.75000   0.33333   0.00000   |    1.34875   0.33092   0.00000    |
 |    58    0.75000   0.50000   0.00000   |    1.34875   0.49638   0.00000    |
 |    59    0.75000   0.66667   0.00000   |    1.34875   0.66185   0.00000    |
 |    60    0.75000   0.83333   0.00000   |    1.34875   0.82731   0.00000    |
 |    61    0.83333   0.00000   0.00000   |    1.49861   0.00000   0.00000    |
 |    62    0.83333   0.16667   0.00000   |    1.49861   0.16546   0.00000    |
 |    63    0.83333   0.33333   0.00000   |    1.49861   0.33092   0.00000    |
 |    64    0.83333   0.50000   0.00000   |    1.49861   0.49638   0.00000    |
 |    65    0.83333   0.66667   0.00000   |    1.49861   0.66185   0.00000    |
 |    66    0.83333   0.83333   0.00000   |    1.49861   0.82731   0.00000    |
 |    67    0.91667   0.00000   0.00000   |    1.64847   0.00000   0.00000    |
 |    68    0.91667   0.16667   0.00000   |    1.64847   0.16546   0.00000    |
 |    69    0.91667   0.33333   0.00000   |    1.64847   0.33092   0.00000    |
 |    70    0.91667   0.50000   0.00000   |    1.64847   0.49638   0.00000    |
 |    71    0.91667   0.66667   0.00000   |    1.64847   0.66185   0.00000    |
 |    72    0.91667   0.83333   0.00000   |    1.64847   0.82731   0.00000    |
 *----------------------------------------------------------------------------*
  
  
 *---------------------------------- MAIN ------------------------------------*
 |  Number of Wannier Functions               :                44             |
 |  Number of Objective Wannier Functions     :                44             |
 |  Number of input Bloch states              :                70             |
 |  Output verbosity (1=low, 5=high)          :                 2             |
 |  Timing Level (1=low, 5=high)              :                 1             |
 |  Optimisation (0=memory, 3=speed)          :                 3             |
 |  Length Unit                               :               Ang             |
 |  Post-processing setup (write *.nnkp)      :                 F             |
 |  Using Gamma-only branch of algorithms     :                 F             |
 *----------------------------------------------------------------------------*
 *------------------------------- WANNIERISE ---------------------------------*
 |  Total number of iterations                :               100             |
 |  Number of CG steps before reset           :                 5             |
 |  Trial step length for line search         :             2.000             |
 |  Convergence tolerence                     :         0.100E-09             |
 |  Convergence window                        :                -1             |
 |  Iterations between writing output         :                 1             |
 |  Iterations between backing up to disk     :               100             |
 |  Write r^2_nm to file                      :                 F             |
 |  Write xyz WF centres to file              :                 F             |
 |  Write on-site energies <0n|H|0n> to file  :                 F             |
 |  Use guiding centre to control phases      :                 F             |
 |  Use phases for initial projections        :                 F             |
 *----------------------------------------------------------------------------*
 *------------------------------- DISENTANGLE --------------------------------*
 |  Using band disentanglement                :                 T             |
 |  Total number of iterations                :               200             |
 |  Mixing ratio                              :             0.500             |
 |  Convergence tolerence                     :         1.000E-10             |
 |  Convergence window                        :                 3             |
 *----------------------------------------------------------------------------*
 *-------------------------------- PLOTTING ----------------------------------*
 |  Plotting Hamiltonian in WF basis          :                 T             |
 *----------------------------------------------------------------------------*
 Time to read parameters        0.015 (sec)

 *---------------------------------- K-MESH ----------------------------------*
 +----------------------------------------------------------------------------+
 |                    Distance to Nearest-Neighbour Shells                    |
 |                    ------------------------------------                    |
 |          Shell             Distance (Ang^-1)          Multiplicity         |
 |          -----             -----------------          ------------         |
 |             1                   0.149861                      2            |
 |             2                   0.165461                      2            |
 |             3                   0.223239                      4            |
 |             4                   0.299722                      2            |
 |             5                   0.314159                      2            |
 |             6                   0.330923                      2            |
 |             7                   0.342361                      4            |
 |             8                   0.348072                      4            |
 |             9                   0.355068                      4            |
 |            10                   0.363274                      4            |
 |            11                   0.385398                      8            |
 |            12                   0.434200                      4            |
 |            13                   0.446479                      4            |
 |            14                   0.449583                      2            |
 |            15                   0.456296                      4            |
 |            16                   0.464658                      8            |
 |            17                   0.479064                      4            |
 |            18                   0.480275                      8            |
 |            19                   0.496384                      2            |
 |            20                   0.518512                      4            |
 |            21                   0.545930                      8            |
 |            22                   0.548472                      4            |
 |            23                   0.558243                      4            |
 |            24                   0.572886                      8            |
 |            25                   0.579854                      4            |
 |            26                   0.587446                      4            |
 |            27                   0.599445                      2            |
 |            28                   0.606260                      8            |
 |            29                   0.621861                      4            |
 |            30                   0.628319                      2            |
 |            31                   0.640571                      8            |
 |            32                   0.645943                      4            |
 |            33                   0.649740                      4            |
 |            34                   0.659489                      8            |
 |            35                   0.661845                      2            |
 |            36                   0.666798                      8            |
 +----------------------------------------------------------------------------+
 | The b-vectors are chosen automatically                                     |
 | Shell:  1 w_b   22.2634198      (Ang^2)                                    |
 | Shell:  1 w_b   22.2634198      (Ang^2)                                    |
 | Shell:  2 w_b   18.2632209      (Ang^2)                                    |
 | SVD found small singular value, Rejecting this shell and trying the next   |
 | Shell:  1 w_b   22.2634198      (Ang^2)                                    |
 | Shell:  2 w_b   18.2632209      (Ang^2)                                    |
 | Shell:  3 w_b    5.0660590      (Ang^2)                                    |
 | The following shells are used:   1,  2,  5                                 |
 +----------------------------------------------------------------------------+
 |                        Shell   # Nearest-Neighbours                        |
 |                        -----   --------------------                        |
 |                          1               2                                 |
 |                          2               2                                 |
 |                          5               2                                 |
 +----------------------------------------------------------------------------+
 | Completeness relation is fully satisfied [Eq. (B1), PRB 56, 12847 (1997)]  |
 +----------------------------------------------------------------------------+
 |                  b_k Vectors (Ang^-1) and Weights (Ang^2)                  |
 |                  ----------------------------------------                  |
 |            No.         b_k(x)      b_k(y)      b_k(z)        w_b           |
 |            ---        --------------------------------     --------        |
 |             1         0.149861    0.000000    0.000000    22.263420        |
 |             2        -0.149861    0.000000    0.000000    22.263420        |
 |             3         0.000000    0.165461    0.000000    18.263221        |
 |             4         0.000000   -0.165461    0.000000    18.263221        |
 |             5         0.000000    0.000000    0.314159     5.066059        |
 |             6         0.000000    0.000000   -0.314159     5.066059        |
 +----------------------------------------------------------------------------+
 |                           b_k Directions (Ang^-1)                          |
 |                           -----------------------                          |
 |            No.           x           y           z                         |
 |            ---        --------------------------------                     |
 |             1         0.149861    0.000000    0.000000                     |
 |             2         0.000000    0.165461    0.000000                     |
 |             3         0.000000    0.000000    0.314159                     |
 +----------------------------------------------------------------------------+
  
 Time to get kmesh              0.029 (sec)
 *============================================================================*
 |                              MEMORY ESTIMATE                               |
 |         Maximum RAM allocated during each phase of the calculation         |
 *============================================================================*
 |                        Disentanglement           54.11 Mb                  |
 |                            Wannierise:           38.38 Mb                  |
 |                                                                            |
 |   N.B. by setting optimisation=0 memory usage will be reduced to:          |
 |                        Disentanglement           52.36 Mb                  |
 |                            Wannierise:           25.62 Mb                  |
 |   However, this will result in more i/o and slow down the calculation      |
 |                          plot_wannier:           38.38 Mb                  |
 *----------------------------------------------------------------------------*
  
 Starting a new Wannier90 calculation ...


 Reading overlaps from wte2.mmn    :  Created on 14Dec2025 at 22:50:40

 Reading projections from wte2.amn :  Created on 14Dec2025 at 22:40:42

 Time to read overlaps          2.716 (sec)

 *------------------------------- DISENTANGLE --------------------------------*
 +----------------------------------------------------------------------------+
 |                              Energy  Windows                               |
 |                              ---------------                               |
 |                   Outer:  -15.00000  to   40.00000  (eV)                   |
 |                   Inner:  -10.00000  to    2.00000  (eV)                   |
 +----------------------------------------------------------------------------+
 |                        K-points with Frozen States                         |
 |                        ---------------------------                         |
 |     1     2     3     4     5     6     7     8     9    10    11    12    |
 |    13    14    15    16    17    18    19    20    21    22    23    24    |
 |    25    26    27    28    29    30    31    32    33    34    35    36    |
 |    37    38    39    40    41    42    43    44    45    46    47    48    |
 |    49    50    51    52    53    54    55    56    57    58    59    60    |
 |    61    62    63    64    65    66    67    68    69    70    71    72    |
 +----------------------------------------------------------------------------+
   Number of target bands to extract:   44
 +----------------------------------------------------------------------------+
 |                                  Windows                                   |
 |                                  -------                                   |
 |               K-point      Ndimwin     Ndimfroz    Nfirstwin               |
 |               ----------------------------------------------               |
 |                   1           48           42          23                  |
 |                   2           48           42          23                  |
 |                   3           48           42          23                  |
 |                   4           48           44          23                  |
 |                   5           48           42          23                  |
 |                   6           48           42          23                  |
 |                   7           48           43          23                  |
 |                   8           48           43          23                  |
 |                   9           49           43          22                  |
 |                  10           50           44          21                  |
 |                  11           49           43          22                  |
 |                  12           48           43          23                  |
 |                  13           48           43          23                  |
 |                  14           49           42          22                  |
 |                  15           50           42          21                  |
 |                  16           50           43          21                  |
 |                  17           50           42          21                  |
 |                  18           49           42          22                  |
 |                  19           50           41          21                  |
 |                  20           50           40          21                  |
 |                  21           50           42          21                  |
 |                  22           50           42          21                  |
 |                  23           50           42          21                  |
 |                  24           50           40          21                  |
 |                  25           51           41          20                  |
 |                  26           50           42          21                  |
 |                  27           50           42          21                  |
 |                  28           50           42          21                  |
 |                  29           50           42          21                  |
 |                  30           50           42          21                  |
 |                  31           50           42          21                  |
 |                  32           49           42          22                  |
 |                  33           49           42          22                  |
 |                  34           49           42          22                  |
 |                  35           49           42          22                  |
 |                  36           49           42          22                  |
 |                  37           48           42          23                  |
 |                  38           48           42          23                  |
 |                  39           48           42          23                  |
 |                  40           48           42          23                  |
 |                  41           48           42          23                  |
 |                  42           48           42          23                  |
 |                  43           50           42          21                  |
 |                  44           49           42          22                  |
 |                  45           49           42          22                  |
 |                  46           49           42          22                  |
 |                  47           49           42          22                  |
 |                  48           49           42          22                  |
 |                  49           51           41          20                  |
 |                  50           50           42          21                  |
 |                  51           50           42          21                  |
 |                  52           50           42          21                  |
 |                  53           50           42          21                  |
 |                  54           50           42          21                  |
 |                  55           50           41          21                  |
 |                  56           50           40          21                  |
 |                  57           50           42          21                  |
 |                  58           50           42          21                  |
 |                  59           50           42          21                  |
 |                  60           50           40          21                  |
 |                  61           48           43          23                  |
 |                  62           49           42          22                  |
 |                  63           50           42          21                  |
 |                  64           50           43          21                  |
 |                  65           50           42          21                  |
 |                  66           49           42          22                  |
 |                  67           48           43          23                  |
 |                  68           48           43          23                  |
 |                  69           49           43          22                  |
 |                  70           50           44          21                  |
 |                  71           49           43          22                  |
 |                  72           48           43          23                  |
 +----------------------------------------------------------------------------+

                   Unitarised projection of Wannier functions                  
                   ------------------------------------------                  
   A_mn = <psi_m|g_n> --> S = A.A^+ --> U = S^-1/2.A
   In dis_project... done
   Using an inner window (linner = T)
   In dis_proj_froz... done

                   Extraction of optimally-connected subspace                  
                   ------------------------------------------                  
 +---------------------------------------------------------------------+<-- DIS
 |  Iter     Omega_I(i-1)      Omega_I(i)      Delta (frac.)    Time   |<-- DIS
 +---------------------------------------------------------------------+<-- DIS
       1     343.83325842     332.09954951       3.533E-02      0.00    <-- DIS
       2     330.43898457     318.09020586       3.882E-02      0.42    <-- DIS
       3     323.45561485     315.40880916       2.551E-02      0.82    <-- DIS
       4     318.96176415     313.58850823       1.713E-02      1.23    <-- DIS
       5     315.87527774     312.08140830       1.216E-02      1.63    <-- DIS
       6     313.60153751     310.73413632       9.228E-03      2.07    <-- DIS
       7     311.80195235     309.46574287       7.549E-03      2.48    <-- DIS
       8     310.26681988     308.25521960       6.526E-03      2.88    <-- DIS
       9     308.89375781     307.09487028       5.858E-03      3.28    <-- DIS
      10     307.63419742     305.95935607       5.474E-03      3.67    <-- DIS
      11     306.44623066     304.80127916       5.397E-03      4.07    <-- DIS
      12     305.28041894     303.57623074       5.614E-03      4.47    <-- DIS
      13     304.09226441     302.30540991       5.911E-03      4.87    <-- DIS
      14     302.87677009     301.07542030       5.983E-03      5.26    <-- DIS
      15     301.67595235     299.95172460       5.748E-03      5.65    <-- DIS
      16     300.54134946     298.95476640       5.307E-03      6.03    <-- DIS
      17     299.50673728     298.08410289       4.773E-03      6.42    <-- DIS
      18     298.58663576     297.33235308       4.218E-03      6.81    <-- DIS
      19     297.78255972     296.68894717       3.686E-03      7.21    <-- DIS
      20     297.08829826     296.14146355       3.197E-03      7.63    <-- DIS
      21     296.49350668     295.67687295       2.762E-03      8.05    <-- DIS
      22     295.98613427     295.28267005       2.382E-03      8.47    <-- DIS
      23     295.55401301     294.94762849       2.056E-03      8.89    <-- DIS
      24     295.18580691     294.66213151       1.777E-03      9.27    <-- DIS
      25     294.87148717     294.41817445       1.540E-03      9.69    <-- DIS
      26     294.60247878     294.20917408       1.337E-03     10.11    <-- DIS
      27     294.37160068     294.02970609       1.163E-03     10.53    <-- DIS
      28     294.17289746     293.87525478       1.013E-03     10.94    <-- DIS
      29     294.00143464     293.74201618       8.832E-04     11.46    <-- DIS
      30     293.85310332     293.62675987       7.709E-04     11.85    <-- DIS
      31     293.72445671     293.52673576       6.736E-04     12.27    <-- DIS
      32     293.61258336     293.43960737       5.895E-04     12.67    <-- DIS
      33     293.51501234     293.36339825       5.168E-04     13.07    <-- DIS
      34     293.42964214     293.29644449       4.541E-04     13.51    <-- DIS
      35     293.35468540     293.23735070       4.001E-04     13.96    <-- DIS
      36     293.28862400     293.18494963       3.536E-04     14.36    <-- DIS
      37     293.23017084     293.13826578       3.135E-04     14.76    <-- DIS
      38     293.17823654     293.09648350       2.789E-04     15.19    <-- DIS
      39     293.13190016     293.05891970       2.490E-04     15.60    <-- DIS
      40     293.09038353     293.02500088       2.231E-04     16.02    <-- DIS
      41     293.05302890     292.99424402       2.006E-04     16.41    <-- DIS
      42     293.01927972     292.96624086       1.810E-04     16.82    <-- DIS
      43     292.98866428     292.94064505       1.639E-04     17.21    <-- DIS
      44     292.96078187     292.91716156       1.489E-04     17.61    <-- DIS
      45     292.93529122     292.89553816       1.357E-04     18.02    <-- DIS
      46     292.91190079     292.87555832       1.241E-04     18.43    <-- DIS
      47     292.89036079     292.85703550       1.138E-04     18.86    <-- DIS
      48     292.87045649     292.83980842       1.047E-04     19.28    <-- DIS
      49     292.85200269     292.82373714       9.653E-05     19.66    <-- DIS
      50     292.83483916     292.80869985       8.927E-05     20.08    <-- DIS
      51     292.81882681     292.79459021       8.278E-05     20.50    <-- DIS
      52     292.80384456     292.78131507       7.695E-05     20.90    <-- DIS
      53     292.78978664     292.76879267       7.171E-05     21.29    <-- DIS
      54     292.77656046     292.75695101       6.698E-05     21.68    <-- DIS
      55     292.76408469     292.74572652       6.271E-05     22.06    <-- DIS
      56     292.75228771     292.73506300       5.884E-05     22.45    <-- DIS
      57     292.74110632     292.72491058       5.533E-05     22.83    <-- DIS
      58     292.73048461     292.71522497       5.213E-05     23.20    <-- DIS
      59     292.72037297     292.70596673       4.922E-05     23.60    <-- DIS
      60     292.71072733     292.69710066       4.656E-05     23.98    <-- DIS
      61     292.70150845     292.68859530       4.412E-05     24.38    <-- DIS
      62     292.69268128     292.68042249       4.188E-05     24.80    <-- DIS
      63     292.68421452     292.67255694       3.983E-05     25.19    <-- DIS
      64     292.67608010     292.66497596       3.794E-05     25.57    <-- DIS
      65     292.66825285     292.65765908       3.620E-05     25.95    <-- DIS
      66     292.66071013     292.65058789       3.459E-05     26.35    <-- DIS
      67     292.65343156     292.64374571       3.310E-05     26.79    <-- DIS
      68     292.64639875     292.63711750       3.172E-05     27.19    <-- DIS
      69     292.63959507     292.63068960       3.043E-05     27.57    <-- DIS
      70     292.63300549     292.62444963       2.924E-05     27.97    <-- DIS
      71     292.62661638     292.61838633       2.813E-05     28.37    <-- DIS
      72     292.62041535     292.61248945       2.709E-05     28.77    <-- DIS
      73     292.61439115     292.60674963       2.612E-05     29.15    <-- DIS
      74     292.60853351     292.60115835       2.521E-05     29.54    <-- DIS
      75     292.60283309     292.59570779       2.435E-05     29.95    <-- DIS
      76     292.59728132     292.59039080       2.355E-05     30.34    <-- DIS
      77     292.59187037     292.58520080       2.280E-05     30.72    <-- DIS
      78     292.58659308     292.58013176       2.208E-05     31.12    <-- DIS
      79     292.58144285     292.57517812       2.141E-05     31.52    <-- DIS
      80     292.57641361     292.57033476       2.078E-05     31.95    <-- DIS
      81     292.57149979     292.56559692       2.018E-05     32.34    <-- DIS
      82     292.56669621     292.56096022       1.961E-05     32.73    <-- DIS
      83     292.56199813     292.55642059       1.906E-05     33.10    <-- DIS
      84     292.55740111     292.55197427       1.855E-05     33.47    <-- DIS
      85     292.55290108     292.54761772       1.806E-05     33.89    <-- DIS
      86     292.54849423     292.54334767       1.759E-05     34.32    <-- DIS
      87     292.54417701     292.53916107       1.715E-05     34.74    <-- DIS
      88     292.53994612     292.53505505       1.672E-05     35.13    <-- DIS
      89     292.53579848     292.53102692       1.631E-05     35.54    <-- DIS
      90     292.53173121     292.52707417       1.592E-05     35.94    <-- DIS
      91     292.52774160     292.52319443       1.554E-05     36.35    <-- DIS
      92     292.52382711     292.51938546       1.518E-05     36.74    <-- DIS
      93     292.51998535     292.51564517       1.484E-05     37.11    <-- DIS
      94     292.51621408     292.51197156       1.450E-05     37.49    <-- DIS
      95     292.51251117     292.50836274       1.418E-05     37.87    <-- DIS
      96     292.50887461     292.50481693       1.387E-05     38.27    <-- DIS
      97     292.50530251     292.50133243       1.357E-05     38.66    <-- DIS
      98     292.50179306     292.49790761       1.328E-05     38.91    <-- DIS
      99     292.49834456     292.49454095       1.300E-05     39.30    <-- DIS
     100     292.49495538     292.49123097       1.273E-05     39.67    <-- DIS
     101     292.49162396     292.48797627       1.247E-05     40.02    <-- DIS
     102     292.48834883     292.48477550       1.222E-05     40.40    <-- DIS
     103     292.48512857     292.48162737       1.197E-05     40.81    <-- DIS
     104     292.48196184     292.47853064       1.173E-05     41.24    <-- DIS
     105     292.47884734     292.47548413       1.150E-05     41.66    <-- DIS
     106     292.47578383     292.47248670       1.127E-05     42.07    <-- DIS
     107     292.47277011     292.46953724       1.105E-05     42.49    <-- DIS
     108     292.46980505     292.46663469       1.084E-05     42.90    <-- DIS
     109     292.46688753     292.46377802       1.063E-05     43.32    <-- DIS
     110     292.46401649     292.46096626       1.043E-05     43.72    <-- DIS
     111     292.46119092     292.45819843       1.023E-05     44.11    <-- DIS
     112     292.45840981     292.45547362       1.004E-05     44.49    <-- DIS
     113     292.45567221     292.45279092       9.852E-06     44.86    <-- DIS
     114     292.45297721     292.45014948       9.669E-06     45.25    <-- DIS
     115     292.45032389     292.44754844       9.490E-06     45.63    <-- DIS
     116     292.44771141     292.44498698       9.316E-06     46.03    <-- DIS
     117     292.44513890     292.44246432       9.146E-06     46.42    <-- DIS
     118     292.44260556     292.43997968       8.979E-06     46.81    <-- DIS
     119     292.44011061     292.43753230       8.817E-06     47.19    <-- DIS
     120     292.43765325     292.43512146       8.658E-06     47.57    <-- DIS
     121     292.43523276     292.43274645       8.502E-06     47.97    <-- DIS
     122     292.43284840     292.43040656       8.350E-06     48.35    <-- DIS
     123     292.43049947     292.42810113       8.201E-06     48.73    <-- DIS
     124     292.42818527     292.42582950       8.056E-06     49.12    <-- DIS
     125     292.42590514     292.42359102       7.914E-06     49.51    <-- DIS
     126     292.42365842     292.42138507       7.774E-06     49.93    <-- DIS
     127     292.42144447     292.41921103       7.638E-06     50.37    <-- DIS
     128     292.41926268     292.41706832       7.504E-06     50.76    <-- DIS
     129     292.41711244     292.41495634       7.373E-06     51.14    <-- DIS
     130     292.41499315     292.41287453       7.245E-06     51.56    <-- DIS
     131     292.41290424     292.41082234       7.120E-06     51.94    <-- DIS
     132     292.41084515     292.40879921       6.997E-06     52.31    <-- DIS
     133     292.40881532     292.40680463       6.876E-06     52.70    <-- DIS
     134     292.40681423     292.40483806       6.758E-06     53.08    <-- DIS
     135     292.40484133     292.40289900       6.643E-06     53.47    <-- DIS
     136     292.40289613     292.40098696       6.529E-06     53.85    <-- DIS
     137     292.40097811     292.39910146       6.418E-06     54.25    <-- DIS
     138     292.39908679     292.39724200       6.309E-06     54.65    <-- DIS
     139     292.39722169     292.39540814       6.202E-06     55.03    <-- DIS
     140     292.39538234     292.39359942       6.098E-06     55.43    <-- DIS
     141     292.39356828     292.39181539       5.995E-06     55.82    <-- DIS
     142     292.39177906     292.39005562       5.894E-06     56.21    <-- DIS
     143     292.39001424     292.38831967       5.796E-06     56.61    <-- DIS
     144     292.38827339     292.38660715       5.699E-06     57.00    <-- DIS
     145     292.38655610     292.38491762       5.604E-06     57.40    <-- DIS
     146     292.38486194     292.38325071       5.511E-06     57.78    <-- DIS
     147     292.38319052     292.38160601       5.419E-06     58.14    <-- DIS
     148     292.38154145     292.37998314       5.330E-06     58.49    <-- DIS
     149     292.37991432     292.37838172       5.242E-06     58.86    <-- DIS
     150     292.37830878     292.37680140       5.156E-06     59.26    <-- DIS
     151     292.37672444     292.37524180       5.071E-06     59.64    <-- DIS
     152     292.37516095     292.37370258       4.988E-06     60.03    <-- DIS
     153     292.37361795     292.37218339       4.907E-06     60.40    <-- DIS
     154     292.37209509     292.37068389       4.827E-06     60.79    <-- DIS
     155     292.37059203     292.36920376       4.748E-06     61.18    <-- DIS
     156     292.36910843     292.36774266       4.671E-06     61.55    <-- DIS
     157     292.36764398     292.36630027       4.596E-06     61.91    <-- DIS
     158     292.36619834     292.36487629       4.522E-06     62.30    <-- DIS
     159     292.36477121     292.36347041       4.449E-06     62.67    <-- DIS
     160     292.36336228     292.36208234       4.378E-06     63.03    <-- DIS
     161     292.36197124     292.36071177       4.308E-06     63.40    <-- DIS
     162     292.36059780     292.35935842       4.239E-06     63.79    <-- DIS
     163     292.35924168     292.35802200       4.172E-06     64.19    <-- DIS
     164     292.35790258     292.35670225       4.106E-06     64.57    <-- DIS
     165     292.35658023     292.35539890       4.041E-06     64.95    <-- DIS
     166     292.35527436     292.35411166       3.977E-06     65.34    <-- DIS
     167     292.35398470     292.35284030       3.914E-06     65.72    <-- DIS
     168     292.35271099     292.35158454       3.853E-06     66.11    <-- DIS
     169     292.35145297     292.35034415       3.793E-06     66.49    <-- DIS
     170     292.35021039     292.34911887       3.734E-06     66.86    <-- DIS
     171     292.34898300     292.34790847       3.676E-06     67.23    <-- DIS
     172     292.34777057     292.34671272       3.618E-06     67.61    <-- DIS
     173     292.34657285     292.34553137       3.562E-06     67.98    <-- DIS
     174     292.34538961     292.34436420       3.508E-06     68.38    <-- DIS
     175     292.34422063     292.34321100       3.454E-06     68.76    <-- DIS
     176     292.34306568     292.34207155       3.401E-06     69.14    <-- DIS
     177     292.34192455     292.34094562       3.349E-06     69.50    <-- DIS
     178     292.34079701     292.33983302       3.297E-06     69.89    <-- DIS
     179     292.33968286     292.33873354       3.247E-06     70.27    <-- DIS
     180     292.33858189     292.33764697       3.198E-06     70.66    <-- DIS
     181     292.33749390     292.33657312       3.150E-06     71.04    <-- DIS
     182     292.33641869     292.33551180       3.102E-06     71.43    <-- DIS
     183     292.33535607     292.33446281       3.056E-06     71.81    <-- DIS
     184     292.33430584     292.33342598       3.010E-06     72.19    <-- DIS
     185     292.33326782     292.33240111       2.965E-06     72.55    <-- DIS
     186     292.33224182     292.33138803       2.921E-06     72.92    <-- DIS
     187     292.33122767     292.33038656       2.877E-06     73.31    <-- DIS
     188     292.33022518     292.32939654       2.835E-06     73.68    <-- DIS
     189     292.32923418     292.32841778       2.793E-06     74.06    <-- DIS
     190     292.32825451     292.32745014       2.752E-06     74.45    <-- DIS
     191     292.32728600     292.32649343       2.711E-06     74.83    <-- DIS
     192     292.32632847     292.32554751       2.672E-06     75.22    <-- DIS
     193     292.32538178     292.32461222       2.633E-06     75.61    <-- DIS
     194     292.32444576     292.32368740       2.594E-06     75.99    <-- DIS
     195     292.32352026     292.32277290       2.557E-06     76.37    <-- DIS
     196     292.32260512     292.32186857       2.520E-06     76.76    <-- DIS
     197     292.32170020     292.32097428       2.483E-06     77.14    <-- DIS
     198     292.32080536     292.32008987       2.448E-06     77.53    <-- DIS
     199     292.31992044     292.31921521       2.413E-06     77.89    <-- DIS
     200     292.31904531     292.31835016       2.378E-06     78.28    <-- DIS

     <<< Warning: Maximum number of disentanglement iterations reached >>>
          <<< Disentanglement convergence criteria not satisfied >>>

        Final Omega_I   292.31835016 (Ang^2)

 +----------------------------------------------------------------------------+

 Time to disentangle bands     78.932 (sec)

 Writing checkpoint file wte2.chk... done


 *------------------------------- WANNIERISE ---------------------------------*
 +--------------------------------------------------------------------+<-- CONV
 | Iter  Delta Spread     RMS Gradient      Spread (Ang^2)      Time  |<-- CONV
 +--------------------------------------------------------------------+<-- CONV

 ------------------------------------------------------------------------------
 Initial State
  WF centre and spread    1  (  1.748265,  5.967477,  7.356589 )    57.16990944
  WF centre and spread    2  (  1.748266,  5.967474,  7.356591 )    57.16993101
  WF centre and spread    3  (  1.739770,  5.866457, -7.867183 )    53.43265701
  WF centre and spread    4  (  1.739771,  5.866458, -7.867188 )    53.43277825
  WF centre and spread    5  (  1.752350,  6.044289, -0.565303 )   115.38878679
  WF centre and spread    6  (  1.752355,  6.044285, -0.565303 )   115.38876819
  WF centre and spread    7  (  1.745489,  5.649771, -0.284962 )   117.60517479
  WF centre and spread    8  (  1.745491,  5.649774, -0.284962 )   117.60520573
  WF centre and spread    9  (  1.746391,  6.554416,  0.782271 )   132.26272743
  WF centre and spread   10  (  1.746394,  6.554416,  0.782268 )   132.26266491
  WF centre and spread   11  (  0.000569,  3.850456, -7.168220 )    55.27905931
  WF centre and spread   12  (  0.000569,  3.850456, -7.168220 )    55.27904754
  WF centre and spread   13  ( -0.002099,  4.023438,  6.701655 )    71.95888247
  WF centre and spread   14  ( -0.002098,  4.023437,  6.701655 )    71.95890655
  WF centre and spread   15  (  0.001816,  4.048934, -5.615199 )    82.59686158
  WF centre and spread   16  (  0.001816,  4.048934, -5.615200 )    82.59681001
  WF centre and spread   17  (  0.003001,  3.669901,  6.124228 )    78.64524052
  WF centre and spread   18  (  0.003004,  3.669907,  6.124229 )    78.64528159
  WF centre and spread   19  (  0.018181,  3.946486,  4.599904 )   101.39846058
  WF centre and spread   20  (  0.018182,  3.946485,  4.599905 )   101.39845398
  WF centre and spread   21  (  0.002357,  1.311264,  8.731714 )    14.14940328
  WF centre and spread   22  (  0.002357,  1.311264,  8.731714 )    14.14940308
  WF centre and spread   23  (  0.006005,  1.251049,  8.790381 )    36.88158623
  WF centre and spread   24  (  0.006006,  1.251049,  8.790377 )    36.88151144
  WF centre and spread   25  ( -0.011097,  1.388658,  9.019961 )    38.85321180
  WF centre and spread   26  ( -0.011081,  1.388654,  9.019961 )    38.85335500
  WF centre and spread   27  (  1.740818,  4.469761,  8.302706 )    16.03349478
  WF centre and spread   28  (  1.740818,  4.469761,  8.302706 )    16.03349364
  WF centre and spread   29  (  1.767593,  4.431801,  7.775255 )    55.94696492
  WF centre and spread   30  (  1.767597,  4.431791,  7.775250 )    55.94691571
  WF centre and spread   31  (  1.768281,  4.684957,  8.758442 )    31.27395592
  WF centre and spread   32  (  1.768283,  4.684943,  8.758447 )    31.27412307
  WF centre and spread   33  ( -0.001217,  5.433114, -8.240795 )    14.86564875
  WF centre and spread   34  ( -0.001217,  5.433115, -8.240795 )    14.86562968
  WF centre and spread   35  ( -0.007036,  5.669528, -8.644278 )    28.87280603
  WF centre and spread   36  ( -0.007035,  5.669527, -8.644284 )    28.87288153
  WF centre and spread   37  (  0.019773,  5.528724, -8.787366 )    28.66071321
  WF centre and spread   38  (  0.019772,  5.528723, -8.787365 )    28.66065745
  WF centre and spread   39  (  1.752251,  2.461653, -8.956252 )    14.41084460
  WF centre and spread   40  (  1.752251,  2.461652, -8.956251 )    14.41085773
  WF centre and spread   41  (  1.740203,  2.689209, -7.066796 )    68.47395429
  WF centre and spread   42  (  1.740205,  2.689207, -7.066795 )    68.47396050
  WF centre and spread   43  (  1.747996,  2.816475, -7.230461 )    70.51704227
  WF centre and spread   44  (  1.747991,  2.816471, -7.230463 )    70.51691939
  Sum of centres and spreads ( 38.559355,183.515600, 13.032571 )  2569.35494199

      0     0.257E+04     0.0000000000     2569.3549123301      78.91  <-- CONV
        O_D=   1507.1530426 O_OD=    769.8835196 O_TOT=   2569.3549123 <-- SPRD
 ------------------------------------------------------------------------------
 Cycle:      1
  WF centre and spread    1  (  1.748261,  5.967447,  7.356069 )    57.09432522
  WF centre and spread    2  (  1.748262,  5.967444,  7.356071 )    57.09434710
  WF centre and spread    3  (  1.739572,  5.865613, -7.863391 )    53.22771968
  WF centre and spread    4  (  1.739574,  5.865614, -7.863397 )    53.22783935
  WF centre and spread    5  (  1.752218,  6.043675, -0.566236 )   115.18966393
  WF centre and spread    6  (  1.752223,  6.043671, -0.566236 )   115.18964661
  WF centre and spread    7  (  1.745457,  5.648456, -0.286943 )   117.38920950
  WF centre and spread    8  (  1.745459,  5.648459, -0.286943 )   117.38923929
  WF centre and spread    9  (  1.746362,  6.559827,  0.773646 )   131.80284364
  WF centre and spread   10  (  1.746365,  6.559827,  0.773643 )   131.80278129
  WF centre and spread   11  (  0.000589,  3.850745, -7.167952 )    55.21947787
  WF centre and spread   12  (  0.000589,  3.850744, -7.167952 )    55.21946609
  WF centre and spread   13  ( -0.002276,  4.023389,  6.700640 )    71.78403051
  WF centre and spread   14  ( -0.002275,  4.023388,  6.700640 )    71.78405504
  WF centre and spread   15  (  0.001761,  4.049747, -5.612952 )    82.44429378
  WF centre and spread   16  (  0.001761,  4.049748, -5.612953 )    82.44424302
  WF centre and spread   17  (  0.002999,  3.669443,  6.123457 )    78.46001276
  WF centre and spread   18  (  0.003002,  3.669448,  6.123458 )    78.46005248
  WF centre and spread   19  (  0.018177,  3.947269,  4.599600 )   101.24651881
  WF centre and spread   20  (  0.018179,  3.947268,  4.599600 )   101.24651254
  WF centre and spread   21  (  0.002325,  1.311298,  8.730998 )    14.06588138
  WF centre and spread   22  (  0.002325,  1.311298,  8.730998 )    14.06588131
  WF centre and spread   23  (  0.006104,  1.251165,  8.790539 )    36.67108696
  WF centre and spread   24  (  0.006105,  1.251166,  8.790536 )    36.67101275
  WF centre and spread   25  ( -0.011320,  1.389422,  9.020476 )    38.71060626
  WF centre and spread   26  ( -0.011305,  1.389417,  9.020475 )    38.71075126
  WF centre and spread   27  (  1.740834,  4.469756,  8.302133 )    15.93602611
  WF centre and spread   28  (  1.740833,  4.469756,  8.302133 )    15.93602532
  WF centre and spread   29  (  1.768035,  4.436296,  7.822251 )    54.43329956
  WF centre and spread   30  (  1.768040,  4.436286,  7.822247 )    54.43325211
  WF centre and spread   31  (  1.768399,  4.685951,  8.757752 )    31.14684708
  WF centre and spread   32  (  1.768401,  4.685937,  8.757758 )    31.14701484
  WF centre and spread   33  ( -0.001279,  5.432719, -8.238966 )    14.74870279
  WF centre and spread   34  ( -0.001278,  5.432720, -8.238966 )    14.74868428
  WF centre and spread   35  ( -0.007042,  5.669547, -8.644459 )    28.71673887
  WF centre and spread   36  ( -0.007041,  5.669547, -8.644465 )    28.71681260
  WF centre and spread   37  (  0.019825,  5.528584, -8.785971 )    28.52807581
  WF centre and spread   38  (  0.019824,  5.528582, -8.785970 )    28.52802017
  WF centre and spread   39  (  1.752235,  2.461512, -8.955924 )    14.32905323
  WF centre and spread   40  (  1.752234,  2.461511, -8.955923 )    14.32906595
  WF centre and spread   41  (  1.740079,  2.688584, -7.069144 )    68.23185460
  WF centre and spread   42  (  1.740080,  2.688583, -7.069143 )    68.23186141
  WF centre and spread   43  (  1.747950,  2.818640, -7.235127 )    70.13509688
  WF centre and spread   44  (  1.747945,  2.818636, -7.235128 )    70.13497388
  Sum of centres and spreads ( 38.558570,183.538139, 13.100978 )  2559.02290393

      1    -0.103E+02    43.0336338750     2559.0228742647      79.13  <-- CONV
        O_D=   1500.8701047 O_OD=    765.8344194 O_TOT=   2559.0228743 <-- SPRD
 Delta: O_D= -0.6282938E+01 O_OD= -0.4049100E+01 O_TOT= -0.1033204E+02 <-- DLTA
 ------------------------------------------------------------------------------
 Cycle:      2
  WF centre and spread    1  (  1.748254,  5.967368,  7.355261 )    56.97210357
  WF centre and spread    2  (  1.748256,  5.967365,  7.355262 )    56.97212580
  WF centre and spread    3  (  1.739244,  5.864117, -7.857221 )    52.89015832
  WF centre and spread    4  (  1.739246,  5.864118, -7.857227 )    52.89027533
  WF centre and spread    5  (  1.751999,  6.042654, -0.567792 )   114.86316983
  WF centre and spread    6  (  1.752003,  6.042650, -0.567792 )   114.86315458
  WF centre and spread    7  (  1.745403,  5.646325, -0.290229 )   117.03509217
  WF centre and spread    8  (  1.745405,  5.646327, -0.290229 )   117.03512012
  WF centre and spread    9  (  1.746294,  6.568678,  0.759312 )   131.04590997
  WF centre and spread   10  (  1.746297,  6.568678,  0.759309 )   131.04584892
  WF centre and spread   11  (  0.000622,  3.851224, -7.167506 )    55.12225572
  WF centre and spread   12  (  0.000622,  3.851223, -7.167506 )    55.12224399
  WF centre and spread   13  ( -0.002583,  4.023172,  6.698931 )    71.50099116
  WF centre and spread   14  ( -0.002582,  4.023171,  6.698930 )    71.50101754
  WF centre and spread   15  (  0.001667,  4.051070, -5.609218 )    82.19345069
  WF centre and spread   16  (  0.001667,  4.051070, -5.609219 )    82.19340123
  WF centre and spread   17  (  0.002994,  3.668699,  6.122277 )    78.15780255
  WF centre and spread   18  (  0.002997,  3.668704,  6.122277 )    78.15784006
  WF centre and spread   19  (  0.018164,  3.948544,  4.599118 )   100.99893760
  WF centre and spread   20  (  0.018165,  3.948543,  4.599118 )   100.99893181
  WF centre and spread   21  (  0.002272,  1.311333,  8.729847 )    13.92982819
  WF centre and spread   22  (  0.002272,  1.311333,  8.729847 )    13.92982830
  WF centre and spread   23  (  0.006267,  1.251272,  8.513261 )    41.12664343
  WF centre and spread   24  (  0.006268,  1.251273,  8.513258 )    41.12656907
  WF centre and spread   25  ( -0.011683,  1.390676,  9.021371 )    38.47386071
  WF centre and spread   26  ( -0.011667,  1.390671,  9.021371 )    38.47400889
  WF centre and spread   27  (  1.740858,  4.469747,  8.301242 )    15.77617379
  WF centre and spread   28  (  1.740858,  4.469748,  8.301242 )    15.77617342
  WF centre and spread   29  (  1.769386,  4.443889,  7.871328 )    52.96165055
  WF centre and spread   30  (  1.769392,  4.443879,  7.871322 )    52.96162160
  WF centre and spread   31  (  1.768594,  4.687633,  8.756891 )    30.93831172
  WF centre and spread   32  (  1.768596,  4.687619,  8.756897 )    30.93847974
  WF centre and spread   33  ( -0.001379,  5.432071, -8.235947 )    14.55843215
  WF centre and spread   34  ( -0.001379,  5.432071, -8.235947 )    14.55841452
  WF centre and spread   35  ( -0.007056,  5.669405, -8.644832 )    28.45961361
  WF centre and spread   36  ( -0.007055,  5.669404, -8.644838 )    28.45968425
  WF centre and spread   37  (  0.019904,  5.528317, -8.783641 )    28.31179881
  WF centre and spread   38  (  0.019903,  5.528315, -8.783639 )    28.31174314
  WF centre and spread   39  (  1.752206,  2.461270, -8.955375 )    14.19471528
  WF centre and spread   40  (  1.752205,  2.461268, -8.955374 )    14.19472720
  WF centre and spread   41  (  1.739854,  2.687464, -7.073216 )    67.83201285
  WF centre and spread   42  (  1.739855,  2.687463, -7.073215 )    67.83202080
  WF centre and spread   43  (  1.747886,  2.822550, -7.243660 )    69.48732132
  WF centre and spread   44  (  1.747881,  2.822546, -7.243662 )    69.48719675
  Sum of centres and spreads ( 38.558372,183.574916, 12.600386 )  2553.66066109

      2    -0.536E+01    42.8792320030     2553.6606314051      79.59  <-- CONV
        O_D=   1502.0772143 O_OD=    759.2650670 O_TOT=   2553.6606314 <-- SPRD
 Delta: O_D=  0.1207110E+01 O_OD= -0.6569352E+01 O_TOT= -0.5362243E+01 <-- DLTA
 ------------------------------------------------------------------------------
 Cycle:      3
  WF centre and spread    1  (  1.747498,  5.960533,  7.336505 )    54.82794313
  WF centre and spread    2  (  1.747498,  5.960531,  7.336508 )    54.82797058
  WF centre and spread    3  (  1.731923,  5.836085, -7.719497 )    47.34288326
  WF centre and spread    4  (  1.731926,  5.836082, -7.719503 )    47.34294954
  WF centre and spread    5  (  1.744964,  6.014252, -0.626812 )   108.37456350
  WF centre and spread    6  (  1.744967,  6.014245, -0.626813 )   108.37457953
  WF centre and spread    7  (  1.742080,  5.593915, -0.678160 )   109.74198332
  WF centre and spread    8  (  1.742081,  5.593917, -0.678160 )   109.74199494
  WF centre and spread    9  (  1.735730,  6.784583,  0.141488 )   115.25164772
  WF centre and spread   10  (  1.735731,  6.784581,  0.141483 )   115.25165749
  WF centre and spread   11  (  0.001179,  3.864426, -7.155510 )    53.34290173
  WF centre and spread   12  (  0.001179,  3.864425, -7.155510 )    53.34290273
  WF centre and spread   13  ( -0.007972,  4.001219,  6.972367 )    63.98492836
  WF centre and spread   14  ( -0.007975,  4.001220,  6.972365 )    63.98492592
  WF centre and spread   15  ( -0.001638,  4.087933, -5.505947 )    77.45844919
  WF centre and spread   16  ( -0.001639,  4.087931, -5.505948 )    77.45843381
  WF centre and spread   17  (  0.002765,  3.662541,  6.110911 )    73.34719503
  WF centre and spread   18  (  0.002767,  3.662541,  6.110909 )    73.34721927
  WF centre and spread   19  (  0.018112,  3.958315,  4.604498 )    96.71863040
  WF centre and spread   20  (  0.018112,  3.958314,  4.604498 )    96.71860424
  WF centre and spread   21  (  0.001117,  1.306070,  8.712592 )    11.59815973
  WF centre and spread   22  (  0.001117,  1.306069,  8.712592 )    11.59815826
  WF centre and spread   23  (  0.006678,  1.233739,  8.608101 )    33.40834117
  WF centre and spread   24  (  0.006678,  1.233739,  8.608099 )    33.40832396
  WF centre and spread   25  ( -0.017257,  1.416367,  9.052999 )    33.21561026
  WF centre and spread   26  ( -0.017242,  1.416356,  9.052994 )    33.21583980
  WF centre and spread   27  (  1.740244,  4.468481,  8.288830 )    12.87368169
  WF centre and spread   28  (  1.740243,  4.468481,  8.288830 )    12.87367877
  WF centre and spread   29  (  1.188537,  3.903864,  7.992751 )    70.02790685
  WF centre and spread   30  (  1.188535,  3.903863,  7.992745 )    70.02821313
  WF centre and spread   31  (  1.772725,  4.733381,  8.779114 )    27.09483819
  WF centre and spread   32  (  1.772721,  4.733369,  8.779122 )    27.09496225
  WF centre and spread   33  ( -0.003337,  5.423448, -8.167857 )    11.40920629
  WF centre and spread   34  ( -0.003336,  5.423447, -8.167856 )    11.40921243
  WF centre and spread   35  ( -0.004997,  5.658368, -8.689184 )    24.56920642
  WF centre and spread   36  ( -0.004990,  5.658363, -8.689194 )    24.56923949
  WF centre and spread   37  (  0.017754,  5.519973, -8.738124 )    24.48221221
  WF centre and spread   38  (  0.017750,  5.519968, -8.738117 )    24.48216344
  WF centre and spread   39  (  1.750996,  2.448166, -8.943661 )    11.88422372
  WF centre and spread   40  (  1.750996,  2.448163, -8.943660 )    11.88421104
  WF centre and spread   41  (  1.737788,  2.634674, -7.209399 )    59.73265211
  WF centre and spread   42  (  1.737790,  2.634674, -7.209398 )    59.73265171
  WF centre and spread   43  (  1.750164,  3.037222, -7.261274 )    61.03048977
  WF centre and spread   44  (  1.750159,  3.037225, -7.261281 )    61.03034355
  Sum of centres and spreads ( 37.310120,183.095060, 11.809437 )  2363.43588992

      3    -0.190E+03    38.4519750614     2363.4358600811      80.03  <-- CONV
        O_D=   1379.7114832 O_OD=    691.4060267 O_TOT=   2363.4358601 <-- SPRD
 Delta: O_D= -0.1223657E+03 O_OD= -0.6785904E+02 O_TOT= -0.1902248E+03 <-- DLTA
 ------------------------------------------------------------------------------
 Cycle:      4
  WF centre and spread    1  (  1.747449,  5.960172,  7.336103 )    54.79627955
  WF centre and spread    2  (  1.747449,  5.960170,  7.336106 )    54.79630711
  WF centre and spread    3  (  1.732049,  5.835664, -7.717159 )    47.29117192
  WF centre and spread    4  (  1.732053,  5.835662, -7.717165 )    47.29123830
  WF centre and spread    5  (  1.744665,  6.013091, -0.629571 )   108.28381767
  WF centre and spread    6  (  1.744668,  6.013084, -0.629572 )   108.28383293
  WF centre and spread    7  (  1.741940,  5.592399, -0.683104 )   109.62857098
  WF centre and spread    8  (  1.741940,  5.592400, -0.683104 )   109.62858348
  WF centre and spread    9  (  1.736566,  6.790576,  0.133278 )   114.92377241
  WF centre and spread   10  (  1.736567,  6.790574,  0.133274 )   114.92378383
  WF centre and spread   11  (  0.001163,  3.864803, -7.155277 )    53.31367519
  WF centre and spread   12  (  0.001163,  3.864802, -7.155277 )    53.31367667
  WF centre and spread   13  ( -0.007474,  4.000619,  6.973749 )    63.95011883
  WF centre and spread   14  ( -0.007477,  4.000620,  6.973747 )    63.95011208
  WF centre and spread   15  ( -0.001794,  4.089065, -5.503259 )    77.39894373
  WF centre and spread   16  ( -0.001796,  4.089063, -5.503260 )    77.39892862
  WF centre and spread   17  (  0.002820,  3.662861,  6.112325 )    73.31792656
  WF centre and spread   18  (  0.002821,  3.662861,  6.112322 )    73.31795203
  WF centre and spread   19  (  0.018244,  3.957235,  4.327698 )    99.15053881
  WF centre and spread   20  (  0.018245,  3.957234,  4.327698 )    99.15051229
  WF centre and spread   21  (  0.001076,  1.305760,  8.712835 )    11.56743333
  WF centre and spread   22  (  0.001076,  1.305759,  8.712835 )    11.56743161
  WF centre and spread   23  (  0.006850,  1.233286,  8.611836 )    33.27806544
  WF centre and spread   24  (  0.006850,  1.233286,  8.611834 )    33.27804956
  WF centre and spread   25  ( -0.017233,  1.416176,  9.053896 )    33.07658784
  WF centre and spread   26  ( -0.017219,  1.416164,  9.053891 )    33.07681785
  WF centre and spread   27  (  1.740162,  4.468324,  8.289036 )    12.81938578
  WF centre and spread   28  (  1.740161,  4.468323,  8.289035 )    12.81938234
  WF centre and spread   29  (  1.189123,  3.910575,  7.995347 )    69.34925511
  WF centre and spread   30  (  1.189123,  3.910574,  7.995341 )    69.34949992
  WF centre and spread   31  (  1.772818,  4.734010,  8.780889 )    27.02325285
  WF centre and spread   32  (  1.772815,  4.733998,  8.780897 )    27.02337626
  WF centre and spread   33  ( -0.003346,  5.423653, -8.166729 )    11.37581356
  WF centre and spread   34  ( -0.003345,  5.423653, -8.166728 )    11.37582009
  WF centre and spread   35  ( -0.004539,  5.657478, -8.691083 )    24.53388040
  WF centre and spread   36  ( -0.004532,  5.657473, -8.691094 )    24.53391452
  WF centre and spread   37  (  0.017563,  5.519872, -8.738172 )    24.42271025
  WF centre and spread   38  (  0.017558,  5.519867, -8.738165 )    24.42266297
  WF centre and spread   39  (  1.750936,  2.447702, -8.943685 )    11.85346517
  WF centre and spread   40  (  1.750936,  2.447700, -8.943684 )    11.85345176
  WF centre and spread   41  (  1.738192,  2.633918, -7.214711 )    59.59249054
  WF centre and spread   42  (  1.738194,  2.633918, -7.214710 )    59.59248933
  WF centre and spread   43  (  1.750241,  3.043410, -7.268458 )    60.87115923
  WF centre and spread   44  (  1.750236,  3.043413, -7.268465 )    60.87101053
  Sum of centres and spreads ( 37.314955,183.121246, 11.231541 )  2363.63714924

      4     0.201E+00    35.8974389571     2363.6371193936      80.51  <-- CONV
        O_D=   1379.5297397 O_OD=    691.7890296 O_TOT=   2363.6371194 <-- SPRD
 Delta: O_D= -0.1817435E+00 O_OD=  0.3830028E+00 O_TOT=  0.2012593E+00 <-- DLTA
 ------------------------------------------------------------------------------
 Cycle:      5
  WF centre and spread    1  (  1.746391,  5.951700,  7.327682 )    54.10132331
  WF centre and spread    2  (  1.746391,  5.951698,  7.327686 )    54.10135195
  WF centre and spread    3  (  1.732190,  5.827094, -7.690460 )    46.31879338
  WF centre and spread    4  (  1.732194,  5.827089, -7.690466 )    46.31886193
  WF centre and spread    5  (  1.736930,  5.976930, -0.713008 )   106.38196768
  WF centre and spread    6  (  1.736932,  5.976920, -0.713010 )   106.38197212
  WF centre and spread    7  (  1.739472,  5.556551, -0.829534 )   106.82639229
  WF centre and spread    8  (  1.739473,  5.556551, -0.829534 )   106.82641418
  WF centre and spread    9  (  1.778251,  6.989296,  0.272857 )   106.72096773
  WF centre and spread   10  (  1.778257,  6.989300,  0.272857 )   106.72094367
  WF centre and spread   11  (  0.000292,  3.874584, -6.318195 )    63.87106036
  WF centre and spread   12  (  0.000292,  3.874583, -6.318195 )    63.87106481
  WF centre and spread   13  ( -0.009969,  4.018342,  6.144989 )    75.12643687
  WF centre and spread   14  ( -0.009968,  4.018342,  6.144986 )    75.12645137
  WF centre and spread   15  ( -0.005522,  4.114433, -5.448564 )    76.22784374
  WF centre and spread   16  ( -0.005523,  4.114431, -5.448565 )    76.22782722
  WF centre and spread   17  (  0.005643,  3.675659,  5.896845 )    76.16812425
  WF centre and spread   18  (  0.005644,  3.675658,  5.896842 )    76.16817782
  WF centre and spread   19  (  0.020858,  3.922806,  3.242724 )   106.43758355
  WF centre and spread   20  (  0.020858,  3.922803,  3.242724 )   106.43755334
  WF centre and spread   21  ( -0.000013,  1.298760,  8.725819 )    10.95412470
  WF centre and spread   22  ( -0.000012,  1.298759,  8.725819 )    10.95412033
  WF centre and spread   23  (  0.022104,  1.221156,  8.702231 )    30.32271057
  WF centre and spread   24  (  0.022104,  1.221157,  8.702230 )    30.32268565
  WF centre and spread   25  ( -0.013692,  1.396768,  9.071839 )    29.81910361
  WF centre and spread   26  ( -0.013677,  1.396757,  9.071833 )    29.81931363
  WF centre and spread   27  (  1.738261,  4.464229,  8.300626 )    11.54780924
  WF centre and spread   28  (  1.738260,  4.464229,  8.300625 )    11.54779781
  WF centre and spread   29  (  1.228115,  3.947291,  7.954843 )    60.79798890
  WF centre and spread   30  (  1.228108,  3.947287,  7.954837 )    60.79822023
  WF centre and spread   31  (  1.775088,  4.738057,  8.829775 )    25.43362430
  WF centre and spread   32  (  1.775083,  4.738046,  8.829783 )    25.43374623
  WF centre and spread   33  ( -0.002763,  5.433996, -8.153840 )    10.78222356
  WF centre and spread   34  ( -0.002763,  5.433996, -8.153840 )    10.78223295
  WF centre and spread   35  (  0.007394,  5.633139, -8.750649 )    23.61963209
  WF centre and spread   36  (  0.007396,  5.633134, -8.750661 )    23.61967596
  WF centre and spread   37  (  0.013734,  5.520542, -8.755276 )    23.11433108
  WF centre and spread   38  (  0.013729,  5.520539, -8.755266 )    23.11432560
  WF centre and spread   39  (  1.749265,  2.438569, -8.949919 )    11.23702373
  WF centre and spread   40  (  1.749266,  2.438567, -8.949918 )    11.23699520
  WF centre and spread   41  (  1.749065,  2.642835, -6.807533 )    63.94890482
  WF centre and spread   42  (  1.749069,  2.642833, -6.807531 )    63.94891927
  WF centre and spread   43  (  1.756757,  3.086333, -7.231542 )    60.14740182
  WF centre and spread   44  (  1.756755,  3.086323, -7.231550 )    60.14723855
  Sum of centres and spreads ( 37.535721,183.458073,  9.643396 )  2359.81126142

      5    -0.383E+01    35.8377192342     2359.8112314357      81.04  <-- CONV
        O_D=   1365.9465492 O_OD=    701.5463321 O_TOT=   2359.8112314 <-- SPRD
 Delta: O_D= -0.1358319E+02 O_OD=  0.9757302E+01 O_TOT= -0.3825888E+01 <-- DLTA
 ------------------------------------------------------------------------------
 Cycle:      6
  WF centre and spread    1  (  1.746383,  5.951459,  7.327485 )    54.08160550
  WF centre and spread    2  (  1.746383,  5.951458,  7.327488 )    54.08163403
  WF centre and spread    3  (  1.732065,  5.826663, -7.690302 )    46.30169774
  WF centre and spread    4  (  1.732069,  5.826659, -7.690308 )    46.30176606
  WF centre and spread    5  (  1.736711,  5.975420, -0.716089 )   106.32834565
  WF centre and spread    6  (  1.736713,  5.975410, -0.716091 )   106.32835015
  WF centre and spread    7  (  1.739447,  5.555493, -0.834951 )   106.73262074
  WF centre and spread    8  (  1.739448,  5.555493, -0.834951 )   106.73264283
  WF centre and spread    9  (  1.770535,  6.989600,  0.272926 )   106.39712142
  WF centre and spread   10  (  1.770538,  6.989603,  0.272927 )   106.39708320
  WF centre and spread   11  (  0.000269,  3.874874, -6.318123 )    63.85071502
  WF centre and spread   12  (  0.000270,  3.874873, -6.318122 )    63.85071941
  WF centre and spread   13  ( -0.010937,  4.020496,  6.145544 )    75.09203134
  WF centre and spread   14  ( -0.010936,  4.020496,  6.145541 )    75.09204354
  WF centre and spread   15  ( -0.005589,  4.115045, -5.447396 )    76.19812198
  WF centre and spread   16  ( -0.005591,  4.115043, -5.447397 )    76.19810528
  WF centre and spread   17  (  0.005658,  3.676096,  5.899321 )    76.15866796
  WF centre and spread   18  (  0.005659,  3.676094,  5.899318 )    76.15872226
  WF centre and spread   19  (  0.020851,  3.922001,  3.243494 )   106.40424990
  WF centre and spread   20  (  0.020851,  3.921998,  3.243494 )   106.40421992
  WF centre and spread   21  ( -0.000040,  1.298630,  8.726396 )    10.93775277
  WF centre and spread   22  ( -0.000040,  1.298629,  8.726397 )    10.93774841
  WF centre and spread   23  (  0.022225,  1.220816,  8.704978 )    30.23068942
  WF centre and spread   24  (  0.022225,  1.220817,  8.704978 )    30.23066233
  WF centre and spread   25  ( -0.013502,  1.395866,  9.072195 )    29.72491947
  WF centre and spread   26  ( -0.013488,  1.395854,  9.072189 )    29.72512828
  WF centre and spread   27  (  1.738237,  4.464157,  8.301163 )    11.51256180
  WF centre and spread   28  (  1.738236,  4.464157,  8.301163 )    11.51255034
  WF centre and spread   29  (  1.237964,  3.948742,  7.960226 )    60.65591737
  WF centre and spread   30  (  1.237959,  3.948738,  7.960220 )    60.65615417
  WF centre and spread   31  (  1.775142,  4.737851,  8.831475 )    25.38824268
  WF centre and spread   32  (  1.775138,  4.737840,  8.831482 )    25.38836455
  WF centre and spread   33  ( -0.002727,  5.434418, -8.153827 )    10.76803668
  WF centre and spread   34  ( -0.002727,  5.434417, -8.153827 )    10.76804593
  WF centre and spread   35  (  0.007360,  5.632398, -8.752776 )    23.58539409
  WF centre and spread   36  (  0.007361,  5.632392, -8.752787 )    23.58543756
  WF centre and spread   37  (  0.013652,  5.520597, -8.756149 )    23.07604126
  WF centre and spread   38  (  0.013647,  5.520594, -8.756140 )    23.07603699
  WF centre and spread   39  (  1.749229,  2.438344, -8.950271 )    11.22033482
  WF centre and spread   40  (  1.749231,  2.438342, -8.950269 )    11.22030602
  WF centre and spread   41  (  1.748622,  2.643675, -6.811777 )    63.84731240
  WF centre and spread   42  (  1.748625,  2.643673, -6.811775 )    63.84732592
  WF centre and spread   43  (  1.757161,  3.087384, -7.239181 )    60.00557835
  WF centre and spread   44  (  1.757160,  3.087373, -7.239188 )    60.00541432
  Sum of centres and spreads ( 37.537447,183.459977,  9.628700 )  2356.99641985

      6    -0.281E+01    39.7358353364     2356.9963898632      81.60  <-- CONV
        O_D=   1362.8680069 O_OD=    701.8100328 O_TOT=   2356.9963899 <-- SPRD
[...]
  WF centre and spread   15  ( -0.059567,  5.135171, -6.630610 )    61.00020509
  WF centre and spread   16  ( -0.002398,  5.071532, -6.954118 )    56.34726635
  WF centre and spread   17  (  0.105465,  3.183993,  6.754334 )    63.24015456
  WF centre and spread   18  (  0.101447,  3.178720,  7.204500 )    59.62373018
  WF centre and spread   19  ( -0.034836,  4.171130,  0.167984 )    53.86038349
  WF centre and spread   20  (  0.007053,  4.211923,  0.273251 )    53.31096480
  WF centre and spread   21  ( -0.009554,  1.344892,  8.966494 )     6.58726865
  WF centre and spread   22  ( -0.011450,  1.342138,  8.967863 )     6.59879593
  WF centre and spread   23  (  0.004257,  1.117818,  9.366204 )     6.12825989
  WF centre and spread   24  (  0.003488,  1.119960,  9.363884 )     6.13319637
  WF centre and spread   25  ( -0.010372,  1.288125,  9.340659 )     6.64014718
  WF centre and spread   26  ( -0.009640,  1.280415,  9.338436 )     6.66490484
  WF centre and spread   27  (  1.749685,  4.501538,  8.583181 )     4.60439937
  WF centre and spread   28  (  1.748871,  4.501976,  8.584088 )     4.61074174
  WF centre and spread   29  (  1.668961,  4.200123,  9.143636 )    17.03453811
  WF centre and spread   30  (  1.662938,  4.195527,  9.150364 )    17.09729486
  WF centre and spread   31  (  1.744293,  4.761187,  9.279332 )     6.84131838
  WF centre and spread   32  (  1.744202,  4.756038,  9.273230 )     6.81475419
  WF centre and spread   33  ( -0.000677,  5.315343, -8.612928 )     5.61325348
  WF centre and spread   34  ( -0.001882,  5.314949, -8.608310 )     5.61834641
  WF centre and spread   35  ( -0.043943,  5.427846, -9.331821 )     6.11383617
  WF centre and spread   36  ( -0.044252,  5.427396, -9.335202 )     6.12291529
  WF centre and spread   37  ( -0.006840,  5.557276, -9.227355 )     6.73992455
  WF centre and spread   38  ( -0.008742,  5.557312, -9.225595 )     6.76355763
  WF centre and spread   39  (  1.752768,  2.436115, -9.072818 )     6.79281679
  WF centre and spread   40  (  1.750640,  2.433122, -9.071842 )     6.79379609
  WF centre and spread   41  (  1.696589,  3.068082, -8.534829 )    23.11970701
  WF centre and spread   42  (  1.701395,  3.065337, -8.574240 )    22.17647303
  WF centre and spread   43  (  1.715613,  2.521668, -9.470283 )     9.12405821
  WF centre and spread   44  (  1.716248,  2.521311, -9.469202 )     9.12325365
  Sum of centres and spreads ( 34.257832,184.790780,-24.504975 )  1344.28092542

     97    -0.205E+01    21.9850517672     1344.2808939635     122.43  <-- CONV
        O_D=    632.5239786 O_OD=    419.4385652 O_TOT=   1344.2808940 <-- SPRD
 Delta: O_D=  0.2101189E+00 O_OD= -0.2260252E+01 O_TOT= -0.2050133E+01 <-- DLTA
 ------------------------------------------------------------------------------
 Cycle:     98
  WF centre and spread    1  (  1.785448,  5.919809,  2.791228 )    76.68193435
  WF centre and spread    2  (  1.795796,  5.921659,  2.736700 )    76.38161815
  WF centre and spread    3  (  1.478673,  5.272990, -8.059606 )    39.78880259
  WF centre and spread    4  (  1.447963,  5.282080, -8.058696 )    40.10235750
  WF centre and spread    5  (  1.652002,  6.404453, -5.523145 )    55.85197083
  WF centre and spread    6  (  1.632092,  6.326359, -5.918244 )    54.68618932
  WF centre and spread    7  (  1.178646,  5.557164, -8.451860 )    31.84850494
  WF centre and spread    8  (  1.176244,  5.569777, -8.434963 )    32.00117455
  WF centre and spread    9  (  0.992586,  7.525230,  5.005192 )    50.62994360
  WF centre and spread   10  (  1.200729,  7.556080,  4.624022 )    51.13719906
  WF centre and spread   11  ( -0.022454,  4.024895, -1.520904 )    83.82204954
  WF centre and spread   12  ( -0.021859,  4.022923, -1.504790 )    83.65864025
  WF centre and spread   13  ( -0.358074,  3.715517,  2.409622 )    54.16768215
  WF centre and spread   14  ( -0.340233,  3.689697,  3.800122 )    53.34730011
  WF centre and spread   15  ( -0.048693,  5.121193, -6.633095 )    60.70428784
  WF centre and spread   16  ( -0.012491,  5.083612, -6.958485 )    56.04551609
  WF centre and spread   17  (  0.104312,  3.182613,  6.482600 )    66.74657255
  WF centre and spread   18  (  0.099397,  3.176983,  7.209814 )    59.45054698
  WF centre and spread   19  ( -0.033947,  4.168817,  0.213516 )    53.23217665
  WF centre and spread   20  (  0.008084,  4.209736,  0.294110 )    52.94904574
  WF centre and spread   21  ( -0.009582,  1.344900,  8.966645 )     6.57977474
  WF centre and spread   22  ( -0.011458,  1.342055,  8.967983 )     6.59167225
  WF centre and spread   23  (  0.004327,  1.117631,  9.366262 )     6.12217012
  WF centre and spread   24  (  0.003501,  1.119820,  9.363951 )     6.12718228
  WF centre and spread   25  ( -0.010425,  1.288186,  9.340767 )     6.63571448
  WF centre and spread   26  ( -0.009680,  1.280419,  9.338527 )     6.65956918
  WF centre and spread   27  (  1.749725,  4.501645,  8.583436 )     4.60164209
  WF centre and spread   28  (  1.748935,  4.502065,  8.584380 )     4.60775470
  WF centre and spread   29  (  1.669055,  4.199588,  9.144153 )    17.01317874
  WF centre and spread   30  (  1.662702,  4.194955,  9.150853 )    17.06927489
  WF centre and spread   31  (  1.744183,  4.761412,  9.279573 )     6.82608629
  WF centre and spread   32  (  1.744138,  4.756203,  9.273443 )     6.79944398
  WF centre and spread   33  ( -0.000627,  5.314794, -8.613778 )     5.60832881
  WF centre and spread   34  ( -0.001800,  5.314420, -8.609120 )     5.61310606
  WF centre and spread   35  ( -0.044027,  5.427631, -9.332154 )     6.10046858
  WF centre and spread   36  ( -0.044323,  5.427182, -9.335546 )     6.11236223
  WF centre and spread   37  ( -0.006766,  5.557048, -9.227528 )     6.72991834
  WF centre and spread   38  ( -0.008681,  5.557052, -9.225780 )     6.75368459
  WF centre and spread   39  (  1.752744,  2.436082, -9.072805 )     6.78265566
  WF centre and spread   40  (  1.750578,  2.433030, -9.071797 )     6.78395633
  WF centre and spread   41  (  1.697633,  3.066240, -8.538672 )    22.91211295
  WF centre and spread   42  (  1.702072,  3.064734, -8.579328 )    21.95958324
  WF centre and spread   43  (  1.715654,  2.521085, -9.470281 )     9.10978259
  WF centre and spread   44  (  1.716223,  2.520700, -9.469256 )     9.10924707
  Sum of centres and spreads ( 34.228323,184.780463,-24.682933 )  1342.44218298

     98    -0.184E+01    19.3290465679     1342.4421515245     122.86  <-- CONV
        O_D=    632.9549098 O_OD=    417.1688916 O_TOT=   1342.4421515 <-- SPRD
 Delta: O_D=  0.4309312E+00 O_OD= -0.2269674E+01 O_TOT= -0.1838742E+01 <-- DLTA
 ------------------------------------------------------------------------------
 Cycle:     99
  WF centre and spread    1  (  1.783577,  5.920150,  2.769654 )    76.18011808
  WF centre and spread    2  (  1.795307,  5.921865,  2.713380 )    75.88752823
  WF centre and spread    3  (  1.486474,  5.276136, -8.068804 )    39.71147483
  WF centre and spread    4  (  1.480751,  5.284554, -8.066454 )    39.78145347
  WF centre and spread    5  (  1.647619,  6.397014, -5.651903 )    54.94834215
  WF centre and spread    6  (  1.629659,  6.321710, -5.989024 )    53.29754645
  WF centre and spread    7  (  1.173624,  5.550247, -8.496420 )    31.42672897
  WF centre and spread    8  (  1.170756,  5.564754, -8.477243 )    31.50428398
  WF centre and spread    9  (  0.970160,  7.549169,  4.984246 )    50.00288728
  WF centre and spread   10  (  0.986815,  7.583198,  4.616339 )    49.86124434
  WF centre and spread   11  ( -0.024480,  4.028772, -1.454056 )    82.99684691
  WF centre and spread   12  ( -0.023327,  4.027082, -1.436351 )    82.84059113
  WF centre and spread   13  ( -0.353251,  3.724399,  2.486652 )    52.58234714
  WF centre and spread   14  ( -0.352502,  3.683462,  3.917457 )    52.02969053
  WF centre and spread   15  ( -0.009568,  5.085372, -6.637110 )    60.45567383
  WF centre and spread   16  ( -0.056164,  5.129509, -6.973725 )    55.67585780
  WF centre and spread   17  (  0.096640,  3.178560,  6.541717 )    65.32471938
  WF centre and spread   18  (  0.089895,  3.172817,  6.973192 )    62.24685965
  WF centre and spread   19  ( -0.029347,  4.150837,  0.295978 )    52.73292001
  WF centre and spread   20  (  0.019579,  4.194243,  0.491284 )    51.58688965
  WF centre and spread   21  ( -0.009736,  1.344896,  8.967753 )     6.54937889
  WF centre and spread   22  ( -0.011474,  1.341444,  8.968850 )     6.56084419
  WF centre and spread   23  (  0.004747,  1.116252,  9.366749 )     6.09330065
  WF centre and spread   24  (  0.003566,  1.118804,  9.364462 )     6.09940810
  WF centre and spread   25  ( -0.010804,  1.288583,  9.341548 )     6.61431792
  WF centre and spread   26  ( -0.009965,  1.280404,  9.339162 )     6.63499660
  WF centre and spread   27  (  1.749996,  4.502453,  8.585357 )     4.59266353
  WF centre and spread   28  (  1.749386,  4.502810,  8.586506 )     4.59807717
  WF centre and spread   29  (  1.669843,  4.195480,  9.147768 )    16.89258482
  WF centre and spread   30  (  1.661438,  4.190603,  9.154093 )    16.92141644
  WF centre and spread   31  (  1.743347,  4.763089,  9.281335 )     6.73951915
  WF centre and spread   32  (  1.743668,  4.757474,  9.274953 )     6.71113998
  WF centre and spread   33  ( -0.000280,  5.310675, -8.620188 )     5.59567500
  WF centre and spread   34  ( -0.001245,  5.310397, -8.615243 )     5.59952508
  WF centre and spread   35  ( -0.044529,  5.426033, -9.334709 )     6.02692906
  WF centre and spread   36  ( -0.044767,  5.425615, -9.338126 )     6.05282770
  WF centre and spread   37  ( -0.006256,  5.555246, -9.228960 )     6.67397055
  WF centre and spread   38  ( -0.008216,  5.555029, -9.227282 )     6.69993864
  WF centre and spread   39  (  1.752558,  2.435707, -9.072923 )     6.73940738
  WF centre and spread   40  (  1.750136,  2.432392, -9.071643 )     6.73846841
  WF centre and spread   41  (  1.704035,  3.062020, -8.575157 )    21.47220835
  WF centre and spread   42  (  1.705956,  3.062825, -8.627727 )    20.38367756
  WF centre and spread   43  (  1.715928,  2.516633, -9.470294 )     9.03069241
  WF centre and spread   44  (  1.716041,  2.516017, -9.469683 )     9.03298927
  Sum of centres and spreads ( 34.005589,184.754734,-24.734589 )  1326.12796067

     99    -0.163E+02    17.8833518148     1326.1279291752     123.28  <-- CONV
        O_D=    627.2014802 O_OD=    406.6080988 O_TOT=   1326.1279292 <-- SPRD
 Delta: O_D= -0.5753430E+01 O_OD= -0.1056079E+02 O_TOT= -0.1631422E+02 <-- DLTA
 ------------------------------------------------------------------------------
 Cycle:    100
  WF centre and spread    1  (  1.784263,  5.919856,  2.764238 )    76.09125781
  WF centre and spread    2  (  1.795309,  5.922130,  2.708081 )    75.78961445
  WF centre and spread    3  (  1.465712,  5.276772, -8.070206 )    39.47305470
  WF centre and spread    4  (  1.472602,  5.284540, -8.069230 )    39.68093458
  WF centre and spread    5  (  1.647654,  6.392719, -5.683225 )    54.94655594
  WF centre and spread    6  (  1.625647,  6.317529, -6.013027 )    53.16366944
  WF centre and spread    7  (  1.171594,  5.548595, -8.506280 )    31.34621994
  WF centre and spread    8  (  1.168715,  5.563579, -8.486424 )    31.41518799
  WF centre and spread    9  (  0.982064,  7.554487,  4.976427 )    49.77886596
  WF centre and spread   10  (  0.983237,  7.587324,  4.618002 )    49.46335300
  WF centre and spread   11  ( -0.025087,  4.029588, -1.439584 )    82.83599639
  WF centre and spread   12  ( -0.023956,  4.027817, -1.421654 )    82.67814707
  WF centre and spread   13  ( -0.356643,  3.725026,  2.486086 )    52.13513917
  WF centre and spread   14  ( -0.354174,  3.688782,  3.932480 )    51.77101506
  WF centre and spread   15  ( -0.007219,  5.095099, -6.641875 )    60.12982866
  WF centre and spread   16  ( -0.050127,  5.121845, -6.977562 )    55.40652662
  WF centre and spread   17  (  0.098911,  3.187916,  6.601797 )    64.43717587
  WF centre and spread   18  (  0.092247,  3.178723,  6.993858 )    61.70373028
  WF centre and spread   19  ( -0.025842,  4.152392,  0.373345 )    51.46539567
  WF centre and spread   20  (  0.018371,  4.192104,  0.432800 )    50.96377096
  WF centre and spread   21  ( -0.009673,  1.344919,  8.967877 )     6.54821549
  WF centre and spread   22  ( -0.011438,  1.341362,  8.968917 )     6.55763722
  WF centre and spread   23  (  0.004665,  1.116105,  9.366797 )     6.08976601
  WF centre and spread   24  (  0.003544,  1.118642,  9.364490 )     6.09619368
  WF centre and spread   25  ( -0.010865,  1.288709,  9.341690 )     6.60950575
  WF centre and spread   26  ( -0.010020,  1.280437,  9.339306 )     6.63062247
  WF centre and spread   27  (  1.750063,  4.502646,  8.585713 )     4.59173918
  WF centre and spread   28  (  1.749501,  4.502946,  8.586828 )     4.59718646
  WF centre and spread   29  (  1.669973,  4.194650,  9.148045 )    16.87206885
  WF centre and spread   30  (  1.661229,  4.189719,  9.154842 )    16.90077784
  WF centre and spread   31  (  1.743228,  4.763406,  9.281660 )     6.72608799
  WF centre and spread   32  (  1.743666,  4.757612,  9.275089 )     6.69774606
  WF centre and spread   33  ( -0.000174,  5.309878, -8.621500 )     5.59444893
  WF centre and spread   34  ( -0.001193,  5.309575, -8.616428 )     5.59898967
  WF centre and spread   35  ( -0.044599,  5.425618, -9.335378 )     6.01588011
  WF centre and spread   36  ( -0.044705,  5.425229, -9.338841 )     6.04362819
  WF centre and spread   37  ( -0.006108,  5.554845, -9.229269 )     6.66326289
  WF centre and spread   38  ( -0.008151,  5.554557, -9.227636 )     6.68891116
  WF centre and spread   39  (  1.752405,  2.435654, -9.072989 )     6.73265813
  WF centre and spread   40  (  1.750204,  2.432244, -9.071747 )     6.73381998
  WF centre and spread   41  (  1.705189,  3.063002, -8.587909 )    21.13935218
  WF centre and spread   42  (  1.707354,  3.063041, -8.641775 )    20.03233401
  WF centre and spread   43  (  1.715960,  2.515828, -9.470290 )     9.01524920
  WF centre and spread   44  (  1.715988,  2.515075, -9.469729 )     9.01957501
  Sum of centres and spreads ( 33.989321,184.772519,-24.724192 )  1318.87109605

    100    -0.726E+01    23.3180962569     1318.8710645452     123.73  <-- CONV
        O_D=    621.3839336 O_OD=    405.1687808 O_TOT=   1318.8710645 <-- SPRD
 Delta: O_D= -0.5817547E+01 O_OD= -0.1439318E+01 O_TOT= -0.7256865E+01 <-- DLTA
 ------------------------------------------------------------------------------

 Writing checkpoint file wte2.chk... done

 Final State
  WF centre and spread    1  (  1.784263,  5.919856,  2.764238 )    76.09125781
  WF centre and spread    2  (  1.795309,  5.922130,  2.708081 )    75.78961445
  WF centre and spread    3  (  1.465712,  5.276772, -8.070206 )    39.47305470
  WF centre and spread    4  (  1.472602,  5.284540, -8.069230 )    39.68093458
  WF centre and spread    5  (  1.647654,  6.392719, -5.683225 )    54.94655594
  WF centre and spread    6  (  1.625647,  6.317529, -6.013027 )    53.16366944
  WF centre and spread    7  (  1.171594,  5.548595, -8.506280 )    31.34621994
  WF centre and spread    8  (  1.168715,  5.563579, -8.486424 )    31.41518799
  WF centre and spread    9  (  0.982064,  7.554487,  4.976427 )    49.77886596
  WF centre and spread   10  (  0.983237,  7.587324,  4.618002 )    49.46335300
  WF centre and spread   11  ( -0.025087,  4.029588, -1.439584 )    82.83599639
  WF centre and spread   12  ( -0.023956,  4.027817, -1.421654 )    82.67814707
  WF centre and spread   13  ( -0.356643,  3.725026,  2.486086 )    52.13513917
  WF centre and spread   14  ( -0.354174,  3.688782,  3.932480 )    51.77101506
  WF centre and spread   15  ( -0.007219,  5.095099, -6.641875 )    60.12982866
  WF centre and spread   16  ( -0.050127,  5.121845, -6.977562 )    55.40652662
  WF centre and spread   17  (  0.098911,  3.187916,  6.601797 )    64.43717587
  WF centre and spread   18  (  0.092247,  3.178723,  6.993858 )    61.70373028
  WF centre and spread   19  ( -0.025842,  4.152392,  0.373345 )    51.46539567
  WF centre and spread   20  (  0.018371,  4.192104,  0.432800 )    50.96377096
  WF centre and spread   21  ( -0.009673,  1.344919,  8.967877 )     6.54821549
  WF centre and spread   22  ( -0.011438,  1.341362,  8.968917 )     6.55763722
  WF centre and spread   23  (  0.004665,  1.116105,  9.366797 )     6.08976601
  WF centre and spread   24  (  0.003544,  1.118642,  9.364490 )     6.09619368
  WF centre and spread   25  ( -0.010865,  1.288709,  9.341690 )     6.60950575
  WF centre and spread   26  ( -0.010020,  1.280437,  9.339306 )     6.63062247
  WF centre and spread   27  (  1.750063,  4.502646,  8.585713 )     4.59173918
  WF centre and spread   28  (  1.749501,  4.502946,  8.586828 )     4.59718646
  WF centre and spread   29  (  1.669973,  4.194650,  9.148045 )    16.87206885
  WF centre and spread   30  (  1.661229,  4.189719,  9.154842 )    16.90077784
  WF centre and spread   31  (  1.743228,  4.763406,  9.281660 )     6.72608799
  WF centre and spread   32  (  1.743666,  4.757612,  9.275089 )     6.69774606
  WF centre and spread   33  ( -0.000174,  5.309878, -8.621500 )     5.59444893
  WF centre and spread   34  ( -0.001193,  5.309575, -8.616428 )     5.59898967
  WF centre and spread   35  ( -0.044599,  5.425618, -9.335378 )     6.01588011
  WF centre and spread   36  ( -0.044705,  5.425229, -9.338841 )     6.04362819
  WF centre and spread   37  ( -0.006108,  5.554845, -9.229269 )     6.66326289
  WF centre and spread   38  ( -0.008151,  5.554557, -9.227636 )     6.68891116
  WF centre and spread   39  (  1.752405,  2.435654, -9.072989 )     6.73265813
  WF centre and spread   40  (  1.750204,  2.432244, -9.071747 )     6.73381998
  WF centre and spread   41  (  1.705189,  3.063002, -8.587909 )    21.13935218
  WF centre and spread   42  (  1.707354,  3.063041, -8.641775 )    20.03233401
  WF centre and spread   43  (  1.715960,  2.515828, -9.470290 )     9.01524920
  WF centre and spread   44  (  1.715988,  2.515075, -9.469729 )     9.01957501
  Sum of centres and spreads ( 33.989321,184.772519,-24.724192 )  1318.87109605

         Spreads (Ang^2)       Omega I      =   292.318350160
        ================       Omega D      =   621.383933565
                               Omega OD     =   405.168780820
    Final Spread (Ang^2)       Omega Total  =  1318.871064545
 ------------------------------------------------------------------------------
 Time for wannierise           42.575 (sec)

 Writing checkpoint file wte2.chk... done

 *---------------------------------------------------------------------------*
 |                               PLOTTING                                    |
 *---------------------------------------------------------------------------*

 Time for plotting              1.600 (sec)
 Total Execution Time         125.922 (sec)

 *===========================================================================*
 |                             TIMING INFORMATION                            |
 *===========================================================================*
 |    Tag                                                Ncalls      Time (s)|
 |---------------------------------------------------------------------------|
 |kmesh: get                                        :         1         0.029|
 |overlap: allocate                                 :         1         0.001|
 |overlap: read                                     :         1         2.714|
 |dis: main                                         :         1        78.932|
 |wann: main                                        :         1        42.575|
 |plot: main                                        :         1         1.600|
 *---------------------------------------------------------------------------*

 All done: wannier90 exiting
